32
Config_type=disp-58 Weight=1.0 Lattice="10.441633225 0.000000000 0.000000000 -0.013517832 10.844616890 -0.000000000 0.152350992 -0.091525190 5.333097935" Energy=-204.9094185500 Virial="-12.83341 -0.15822 -4.89585 -0.15822 -15.89752 0.98465 -4.89585 0.98465 -13.41643" pbc="T T T" Properties=species:S:1:pos:R:3:forces:R:3
Ca	      0.00709     10.79202      0.08685        -0.292894      1.596079     -0.824957
Ca	      0.07544      2.69513      2.68410        -0.520851     -1.241990     -0.068275
Ca	      2.58511     10.69311      2.62862         0.511929      1.503404      0.065512
Ca	      2.62794      2.80443      0.04187        -0.300776     -0.860666     -0.386922
Ca	     10.42455      5.37474      0.00427         0.063267     -0.185636      0.007212
Ca	     10.49859      8.11877      2.72014         0.010725      0.083466     -0.287489
Ca	      2.69354      5.42317      2.60922        -0.101747     -0.028813      0.819535
Ca	      2.51515      8.20917      0.06208         0.869530     -0.502915     -0.682700
Ca	      5.26085     10.64685      5.24200         0.593434      0.864728      0.407858
Ca	      5.18787      2.60998      2.62681         0.682280      0.238100      0.179470
Ca	      7.77679     10.76927      2.51450         0.417443      0.727465      1.285132
Ca	      7.73092      2.74132      0.03732         0.765372     -0.607502     -0.401530
Ca	      5.36639      5.30375      5.26728        -0.318624      0.482769      1.045579
Ca	      5.32694      8.10797      2.73316        -0.828124     -0.815623     -0.832898
Ca	      7.88808      5.35390      2.66854         0.057511     -0.174022      0.234436
Ca	      7.94409      8.08412      5.33292         0.103018     -0.371845      0.036632
O	      3.88349      4.04886      1.43161         0.432783     -0.067213     -0.579987
O	      4.15010      1.28670      4.04658        -0.816444     -0.154800     -0.222092
O	      1.36382      3.85763      3.95516         0.632901      1.267247      0.663613
O	      1.35221      1.36540      1.30489         0.369179     -0.341118      0.180871
O	      3.91683      9.48164      1.29761        -0.117358     -0.433388      0.358696
O	      4.12021      6.66046      4.00745        -0.727661      0.426601     -0.001195
O	      1.43299      9.50436      4.03514        -0.212240     -1.054198     -0.082564
O	      1.42733      6.76751      1.30510        -0.856481      0.028407      0.225250
O	      9.17767      3.94477      1.40832        -0.161753      0.813388     -0.507708
O	      9.21532      1.18929      3.99953        -0.164077      0.086431     -0.014123
O	      6.63403      4.03816      4.10001         0.127380     -0.405847     -0.824686
O	      6.57750      1.32261      1.29477        -0.843044     -0.170530     -0.021289
O	      9.15735      9.57786      1.31821        -0.083102     -1.574796      0.145120
O	      9.33276      6.69122      3.96877        -0.290884      0.158175      0.364403
O	      6.56667      9.32922      3.96922         0.713917      0.261514      0.361914
O	      6.55496      6.68663      1.43560         0.285390      0.453125     -0.642821
32
Config_type=disp-59 Weight=1.0 Lattice="10.592963219 0.000000000 -0.000000000 -0.290365398 10.345512390 0.000000000 0.176323324 -0.083353356 5.106565476" Energy=-204.6445086700 Virial="7.07877 -0.61063 -11.10589 -0.61063 8.49995 6.81153 -11.10589 6.81153 7.34673" pbc="T T T" Properties=species:S:1:pos:R:3:forces:R:3
Ca	     -0.28405     10.32755      0.07858         0.712656      0.937731     -1.166159
Ca	      0.03503      2.51976      2.47408        -0.167051     -0.034939      0.484332
Ca	      2.71521      0.00710      2.53576         0.567429     -0.519949      0.256737
Ca	      2.79254      2.56891      5.02469        -0.069909     -0.866897      0.607960
Ca	     10.57776      5.14714      4.88256         0.117748      0.327172      2.059419
Ca	     -0.12023      7.67297      2.56001         0.235416      1.445792     -0.386840
Ca	      2.67677      5.00472      2.48113        -1.672886      1.671384      1.272565
Ca	      2.59588      7.71477      5.02044        -0.006486      0.132285      0.960556
Ca	      5.29539      0.00266      0.02323        -0.214047      0.512356     -0.634689
Ca	      5.39578      2.52689      2.57000        -1.766062      0.153762      0.091583
Ca	      8.00131     -0.00094      2.53328        -0.141612     -0.195547      0.297932
Ca	      7.84529      2.53053      0.03264        -1.003855      0.812418     -0.168304
Ca	      5.33587      5.09955      5.01628        -0.297669      0.039507      0.605461
Ca	      5.09812      7.59376      2.50433         0.565487      1.386693     -0.314220
Ca	      8.03346      4.95674      2.50335        -1.196495      1.643680      0.289999
Ca	      7.70324      7.79690      0.00850        -0.250669     -0.015205     -0.190182
O	      3.89278      3.84699      1.37063         1.088597     -0.847755     -1.318842
O	      4.06632      1.17799      3.82404         0.242127      0.598355      0.244193
O	      1.24277      3.77000      3.97956         0.940851     -0.553098     -1.555490
O	      1.41465      1.22564      1.33464        -0.565958      0.873864     -0.453730
O	      3.74919      9.14853      1.20775        -0.240384     -1.406585      0.673632
O	      3.93937      6.44274      3.86996        -0.322770     -1.014521     -0.249273
O	      1.26037      9.02402      3.91367        -0.703408     -0.284133     -0.540251
O	      1.17986      6.44865      1.35666         0.329845     -0.697953     -0.591544
O	      9.20046      3.80610      1.16119         0.806978     -0.182677      0.154629
O	      9.26768      1.25982      3.98107         0.932105     -0.614720     -1.317489
O	      6.54324      3.88018      3.73408         1.369718     -0.327354      0.523236
O	      6.52703      1.31392      1.33279         1.336757     -0.768674     -0.405860
O	      9.07243      9.11752      1.20344        -0.680754     -0.968678      1.228487
O	      9.24754      6.49556      3.83705        -0.815773     -0.655576     -0.280200
O	      6.46794      9.01352      3.85733         0.312098     -0.575397     -0.510402
O	      6.46307      6.35090      1.23401         0.557977     -0.005342      0.332755
32
Config_type=disp-10 Weight=1.0 Lattice="9.138149262 0.000000000 0.000000000 0.171165884 9.206346512 -0.000000000 0.180973232 -0.069016732 4.989162922" Energy=-211.1441805200 Virial="42.90856 -3.87119 -7.23500 -3.87119 38.07631 2.59384 -7.23500 2.59384 -9.48020" pbc="T T T" Properties=species:S:1:pos:R:3:forces:R:3
Ca	      0.24476      9.11131      0.00867        -0.231785      0.659088      0.059958
Ca	      9.24037      2.24344      2.49199         0.122918      0.384238      0.389960
Ca	      2.40452      0.02388      2.51280        -0.494016     -1.104512     -0.122619
Ca	      2.31702      2.28659      0.02897        -0.106361      0.811028     -0.370447
Ca	      9.16465      4.63969      0.08899         0.334709     -0.649286     -0.859376
Ca	      0.23241      6.81049      2.42928         0.466333      0.037057      0.424388
Ca	      2.56986      4.61313      2.42913        -1.545670     -0.407881      0.754723
Ca	      2.71879      6.88220      4.94748        -1.118132     -1.427851     -0.018712
Ca	      4.72513     -0.00691      4.95517         0.022075     -0.465449      0.250816
Ca	      4.62511      2.27100      2.46500         1.528263      0.355348      0.543757
Ca	      7.11963      9.11824      2.60058         0.258753      0.794676     -0.441689
Ca	      6.84771      2.11346      0.09602         0.927725      4.021756     -0.408437
Ca	      4.69571      4.60047      0.11196        -0.388679     -0.046472     -0.889631
Ca	      4.75980      6.86626      2.48224         0.393341     -0.235890      0.213845
Ca	      7.01031      4.56688      2.50021        -0.428793     -0.339882      0.551259
Ca	      6.87956      7.01996      0.05371         1.025625     -1.319367     -0.198258
O	      2.47543      2.25431      2.55181        -0.810473      0.027371     -0.342320
O	      2.48424      9.09215      0.05632         0.324328      1.838664     -0.108035
O	      0.29383      2.21726      4.90877        -0.529873     -0.333354      0.453529
O	      0.27555      9.14008      2.45672        -0.060870     -0.203058      0.225753
O	      2.59447      6.81837      2.49047        -0.952481      0.875258     -0.044557
O	      2.57230      4.62294      4.90251        -0.133893     -1.024274      0.574607
O	      0.29363      6.87878      0.05125        -1.552639      0.224742     -0.103922
O	      9.20185      4.51513      2.50959         1.129972      0.451364     -0.299468
O	      6.96382      2.31294      2.56048        -0.200868     -1.203183     -0.301403
O	      6.91784      0.11761      0.10562        -0.516648     -3.188340     -0.312031
O	      4.61092      2.35632      0.00642        -0.445396     -0.975343      0.280671
O	      4.83293      9.11440      2.53221         0.145506      0.733404      0.063134
O	      7.01569      6.86001      2.45878         0.614057      0.500774      0.117594
O	      7.04590      4.48130      4.94029         0.813019      0.726318      0.473546
O	      4.68219      6.87726      0.03203         1.098663      0.837287      0.044235
O	      4.73267      4.59408      2.61835         0.311292     -0.354230     -0.600871
32
Config_type=disp-51 Weight=1.0 Lattice="10.844973564 0.000000000 -0.000000000 -0.121653452 10.501304626 -0.000000000 0.204783812 -0.119232297 5.434179306" Energy=-204.2309072700 Virial="-20.04166 2.83290 -10.40290 2.83290 -18.78064 1.88367 -10.40290 1.88367 -19.32183" pbc="T T T" Properties=species:S:1:pos:R:3:forces:R:3
Ca	     10.83062      0.02480      0.13614        -0.205202     -0.431285     -0.916115
Ca	      0.17221      2.47217      2.77788        -1.025864      0.652953      0.181383
Ca	      2.73705     -0.03187      2.72251         0.442837     -0.713815      0.209737
Ca	      2.71122      2.56556      0.12674        -0.156303      0.779185     -1.004513
Ca	     10.94346      5.16604      5.31941         0.034615     -0.023454      0.820242
Ca	     10.81954      7.80122      2.74689         0.350215      0.492877     -0.256996
Ca	      2.70486      5.18907      2.64606        -0.075586      0.337563      0.758016
Ca	      2.89521      7.58567      5.42650        -1.431341      2.179197      1.004747
Ca	      5.31149      0.03495      0.08174         0.780472     -0.139422     -0.597042
Ca	      5.43747      2.58214      2.70515         0.770464      0.102920      0.040872
Ca	      8.05752     10.39312      2.75048         0.580760      0.698945     -0.563593
Ca	      8.28718      2.56885      5.41009        -0.045093     -0.738720      0.006528
Ca	      5.47297      5.02409      5.42053         0.798454      0.970675     -0.115622
Ca	      5.40317      7.73888      2.79448         0.603800      0.893853     -0.785521
Ca	      8.19082      5.08072      2.66200        -0.071299      0.672046      0.114188
Ca	      8.17617      7.74201      5.42832         0.184592      0.374969     -0.227350
O	      4.04456      3.95483      1.38966         0.005391     -0.548932      0.022490
O	      4.20217      1.33021      4.02998        -0.359629     -0.467192      0.422110
O	      1.48418      3.86551      4.12514         0.176736     -0.172252     -0.204231
O	      1.40037      1.34066      1.35316         0.175371     -0.641312      0.420550
O	      3.96050      9.11904      1.30238         0.172896      0.235061      0.622708
O	      4.17628      6.63530      4.17943         0.946542     -2.261364     -1.200300
O	      1.47238      9.06443      4.13156        -0.376492      0.314922     -0.173165
O	      1.43179      6.57655      1.42397        -0.734666     -0.823427      0.006072
O	      9.47144      3.80179      1.32113         0.660029      0.422621      0.130592
O	      9.59239      1.20793      4.09785         0.523727     -0.072517     -0.051655
O	      6.89201      3.87664      4.09061        -0.380147     -0.193833     -0.208556
O	      6.87233      1.29059      1.39256        -0.738451      0.095883     -0.098608
O	      9.42441      9.08082      1.27055         0.073620      0.115424      0.623814
O	      9.56456      6.53603      4.07530        -0.084085     -0.747544     -0.143086
O	      6.83435      9.20669      4.02736        -0.897289     -0.865230      0.720430
O	      6.82990      6.48727      1.31249        -0.699074     -0.498793      0.441876
32
Config_type=disp-7 Weight=1.0 Lattice="9.985648155 0.000000000 0.000000000 0.351867676 9.171354294 -0.000000000 -0.212448582 -0.237600610 5.001850605" Energy=-211.3641115400 Virial="-17.83115 -8.60374 8.44648 -8.60374 26.52088 11.28179 8.44648 11.28179 -18.41541" pbc="T T T" Properties=species:S:1:pos:R:3:forces:R:3
Ca	     10.26315      9.10477      0.03875        -0.022635      1.274786     -0.145801
Ca	      9.92667      2.18095      2.43771         0.232761      0.242220      0.420700
Ca	      2.36356     -0.12124      2.58625         0.411077      0.259956     -0.534381
Ca	      2.39855      1.96382      4.91281        -0.086261      3.181656      0.647941
Ca	     10.14132      4.59918      0.04467         0.084310     -0.902002     -0.465985
Ca	     10.07777      6.64613      2.53411         0.076828      1.084202      0.207315
Ca	      2.51878      4.44829      2.50638         0.367550     -0.573142     -0.040103
Ca	      2.68386      6.93537      0.07242         0.592024     -0.568095     -0.174207
Ca	      5.10181      8.81827      4.94076         0.542774      1.658660      0.463347
Ca	      5.02130      2.15944      2.57155        -0.096131     -0.265995     -0.482078
Ca	      7.48269     -0.08394      2.48113        -0.688886      0.319675      0.112420
Ca	      7.66085      2.26479      0.05445        -0.520633      0.392464     -0.414217
Ca	      4.93188      4.30847      4.98464        -0.171466      0.390596      0.193900
Ca	      5.15446      6.64978      2.55705        -0.164902      1.088948     -0.193789
Ca	      7.50060      4.53800      2.37526         0.275923     -0.959261      0.801061
Ca	      7.75267      6.79697      0.08313        -0.298837      0.855723     -0.600094
O	      2.48353      2.12764      2.54993        -0.103242      0.381838     -0.044061
O	      2.40497     -0.01683      4.97396        -0.645243     -4.030810      0.047330
O	     10.01578      2.31061      0.00711         0.412582     -0.342980     -0.009589
O	      9.83484     -0.07129      2.36576         0.300652     -1.000472      0.459652
O	      2.73245      6.72151      2.57627        -0.690000      0.283963     -0.114259
O	      2.65341      4.56594      0.10484        -0.170251      0.773112     -0.243103
O	     10.00311      6.67324      4.96718         0.308530     -0.610783      0.165791
O	      9.96751      4.44827      2.58119         0.420529      0.453875     -0.303392
O	      7.57845      2.29348      2.45903        -0.414073     -0.856762      0.085493
O	      7.52616      0.02979      0.00233         0.085552     -0.779541      0.004322
O	      4.96299      2.17703      4.98984        -0.178605     -1.399359     -0.185574
O	      5.15768      9.03599      2.51520         0.212731     -0.312592     -0.038654
O	      7.62914      6.85228      2.51311         0.284535     -0.797603     -0.189333
O	      7.72936      4.50032      0.04980        -0.222030      1.289886      0.005298
O	      5.11220      6.66877      4.91442        -0.154254     -1.015383      0.325605
O	      5.06087      4.40674      2.44305         0.019090      0.483221      0.238444
36
Config_type=disp-30 Weight=1.0 Lattice="11.472687721 0.000000000 0.000000000 -5.293476105 9.755100250 0.000000000 -0.212504730 0.115208052 9.142068863" Energy=-163.9992614700 Virial="28.76706 -1.99749 -2.09340 -1.99749 30.62463 1.66596 -2.09340 1.66596 -170.59886" pbc="T T T" Properties=species:S:1:pos:R:3:forces:R:3
Ca	     -0.05678      2.29772      9.08344         0.016515     -0.319727      0.281757
Ca	      0.05255      2.12261      4.66915         0.033708      0.337936      0.055192
Ca	     -1.72271      5.43258      9.09402        -0.255075      0.428207      0.328189
Ca	     -1.74658      5.42772      4.46053         0.025206      0.098369      0.256263
Ca	     -3.45672      8.65613      0.00183         0.256683     -0.137696     -0.401124
Ca	     -3.66399      8.72855      4.54555         0.512094     -0.154699     -0.109976
Ca	      3.72119      2.33622      9.13155         0.039209     -0.149022     -0.184445
Ca	      3.89816      2.24420      4.69073         0.016523     -0.005841     -0.744220
Ca	      2.15987      5.32885      0.02834         0.053751      0.295836      0.212941
Ca	      2.10166      5.54329      4.53433        -0.105863     -0.094303      0.202097
Ca	      0.33580      8.89319      9.14203        -0.356372     -0.266874      0.069165
Ca	      0.35838      8.71891      4.57673        -0.168974      0.059880     -0.089589
Ca	      7.56330      2.30890      9.02587         0.077867      0.243975      0.146191
Ca	      7.69086      2.21746      4.62514         0.073346     -0.031165      0.059487
Ca	      5.71828      5.55761      9.00569         0.166505      0.091992      0.102224
Ca	      5.88567      5.48002      4.59827         0.090961     -0.151643     -0.026435
Ca	      4.19461      8.67488      0.07524         0.314457      0.087266     -0.579327
Ca	      4.17096      8.70625      4.64837        -0.130802      0.078647     -0.271915
O	      0.04893      2.13676      2.24757        -0.059284      0.007497      0.275621
O	     -0.06278      2.16704      6.91427        -0.031611      0.047847     -0.398989
O	     -1.57759      5.47791      2.32516        -0.088828     -0.060173     -0.447822
O	     -1.86120      5.48717      6.89973         0.071413     -0.145740     -0.208124
O	     -3.51698      8.75560      2.12531        -0.153376      0.004073      1.043841
O	     -3.66365      8.69493      6.90365        -0.104464      0.090150     -0.825048
O	      3.91448      2.22600      2.24330        -0.000068     -0.020150     -0.133670
O	      3.79245      2.24152      6.75929        -0.098110     -0.046342      1.027526
O	      2.04404      5.37103      2.36974         0.133045     -0.056091     -0.546904
O	      2.07143      5.44150      6.84006        -0.067642     -0.071292      0.390839
O	      0.33282      8.60534      2.35226         0.103205      0.061006     -0.555001
O	      0.20858      8.70845      6.77383         0.066160      0.051428      0.640373
O	      7.73836      2.18656      2.36891        -0.019937     -0.054951     -0.261447
O	      7.57743      2.28521      6.84194        -0.088762     -0.099042      0.157902
O	      5.99975      5.40503      2.22354        -0.038017      0.086260      0.105301
O	      5.82868      5.47691      6.84964        -0.044595     -0.068170     -0.513370
O	      4.14427      8.67880      2.17853        -0.106722     -0.122009      0.827928
O	      4.07569      8.76585      6.82013        -0.132148     -0.015437      0.114570
32
Config_type=disp-8 Weight=1.0 Lattice="9.704600334 -0.000000000 0.000000000 0.254708499 9.726242065 -0.000000000 -0.103894465 -0.167908460 4.622431278" Energy=-213.2368048100 Virial="-1.36542 -5.33904 4.98418 -5.33904 -0.89799 7.35482 4.98418 7.35482 21.06530" pbc="T T T" Properties=species:S:1:pos:R:3:forces:R:3
Ca	      9.68102      0.07686      0.02026         0.389299     -0.553507     -0.430334
Ca	      0.05953      2.41155      2.27349        -0.293541     -0.508270      0.282489
Ca	      2.36483     -0.07056      2.30879        -0.345839     -0.328774      0.297358
Ca	      2.48190      2.44651      0.06351        -0.186232     -0.521122     -0.792185
Ca	      9.69869      4.67419      4.59732        -0.005524      0.032878      0.447350
Ca	      0.13885      7.19916      2.31346        -0.327361      0.072252     -0.177815
Ca	      2.52929      4.88636      2.24185        -0.479082     -0.936040      0.742007
Ca	      2.49181      7.10372      4.54244        -0.007978      0.592890      0.797453
Ca	      4.86613      0.09183      0.01053         0.013879     -1.290158     -0.509538
Ca	      4.81027      2.23530      2.28841         0.606637      0.511570      0.486605
Ca	      7.52580      9.61197      2.25702        -0.257399     -0.054823      1.105280
Ca	      7.33419      2.24776      4.61088        -0.640006      0.017274     -0.189585
Ca	      4.89651      4.88700      0.09994         0.781790     -0.658420     -1.167946
Ca	      4.97289      7.12295      2.31072         0.199507      0.999405      0.020081
Ca	      7.25062      4.74881      2.30048         0.337949     -0.218868      0.207674
Ca	      7.44867      7.18611      0.02617        -0.161364      0.595497     -0.626357
O	      2.35259      2.23691      2.31260         0.880928      0.790425      0.191417
O	      2.36639      0.06559      0.08279         0.403899     -0.437099     -0.779950
O	      0.00546      2.24217      4.56806        -0.141701      0.434253      0.330160
O	     -0.03705     -0.07008      2.26199        -0.267599     -0.246060      0.497948
O	      2.42998      7.18600      2.30881         0.834036     -0.160030     -0.338681
O	      2.47954      4.57867      4.59614        -0.255057      0.718206      0.063882
O	      0.19525      7.01067      4.60004        -0.702105      0.301437      0.139527
O	      9.69394      4.75908      2.40816         0.335184      0.137818     -1.027526
O	      7.37548      2.27990      2.26818        -0.391421      0.279137      0.283109
O	      7.54017      9.68697      0.13190         0.087651     -0.030236     -1.538804
O	      5.06312      2.33652      0.00646        -0.844843      0.495661     -0.109584
O	      4.99079      9.56512      2.22216         0.253078      0.410202      0.811245
O	      7.32880      7.15735      2.22760         0.440031     -0.012108      0.806709
O	      7.15238      4.69296      4.61303         0.749246     -0.290562      0.099715
O	      4.94637      7.03741      4.60122        -0.426353      0.209439      0.087653
O	      4.91062      4.78812      2.34855        -0.579711     -0.352267     -0.009357
36
Config_type=disp-22 Weight=1.0 Lattice="11.282676697 0.000000000 -0.000000000 -5.674053192 10.194147110 0.000000000 -0.171175972 -0.230489284 9.638389587" Energy=-154.6937439300 Virial="28.14869 0.16381 -0.24715 0.16381 24.35376 -0.42730 -0.24715 -0.42730 -215.06194" pbc="T T T" Properties=species:S:1:pos:R:3:forces:R:3
Ca	     -0.06585      2.34382      0.03423         0.124522     -0.096085      0.115382
Ca	     -0.01619      2.08778      4.71265        -0.142147      0.075991      0.002659
Ca	     -2.12625      5.48910      9.54886         0.096075     -0.092511     -0.158049
Ca	     -1.98807      5.55731      4.79126        -0.063001     -0.196627     -0.010314
Ca	     -3.81789      9.04739      0.07595         0.227619      0.183970      0.042619
Ca	     -3.81847      8.92643      4.81568        -0.141180     -0.074668     -0.012640
Ca	      3.75683      2.38591      0.04918        -0.135592     -0.390671      0.120139
Ca	      3.62849      2.16480      4.89697         0.001382     -0.171755      0.021249
Ca	      1.73691      5.42018      9.55042        -0.072164      0.071818     -0.042980
Ca	      1.79967      5.63665      4.74965        -0.169407     -0.234468     -0.183347
Ca	     -0.10748      8.79869      9.52882        -0.132360      0.069929     -0.226846
Ca	     -0.08119      8.90339      4.82595        -0.133981      0.130328      0.068202
Ca	      7.34219      1.99423      9.62549         0.079423     -0.017079     -0.058770
Ca	      7.39199      2.10309      4.83080         0.169676      0.032657     -0.013875
Ca	      5.65067      5.59826      0.09617         0.021020      0.184970      0.182186
Ca	      5.41954      5.44294      4.77343         0.282601      0.273758     -0.227611
Ca	      3.66710      8.78090      9.57775        -0.108531     -0.035924     -0.160252
Ca	      3.59830      8.93314      4.85926         0.253736      0.004308      0.076558
O	     -0.10762      2.17646      2.51544         0.041655      0.102377     -0.258869
O	     -0.05931      2.13165      7.24490        -0.101898     -0.011626      0.324177
O	     -1.97213      5.65860      2.44006        -0.006961      0.045773      0.154148
O	     -2.03450      5.50008      7.28504         0.034802      0.089292     -0.025716
O	     -3.83034      9.09134      2.34980        -0.070370     -0.077000      0.076997
O	     -3.98385      8.90701      7.21184         0.019174     -0.004541     -0.184714
O	      3.64073      2.25220      2.45997         0.039032      0.132096     -0.076056
O	      3.51895      2.07281      7.16725         0.161588      0.148662      0.167282
O	      1.82358      5.64103      2.37829        -0.009070     -0.033295      0.131770
O	      1.74455      5.52425      7.29232         0.026048      0.100569     -0.169996
O	     -0.05296      9.08252      2.47444        -0.012306     -0.063906      0.183683
O	     -0.24177      8.90296      7.24280         0.118439      0.008178      0.030758
O	      7.52767      2.17177      2.33847        -0.108310      0.105091     -0.054877
O	      7.44506      2.16084      7.22451        -0.121216     -0.074765     -0.137957
O	      5.55815      5.63578      2.40616        -0.004825     -0.091262      0.261843
O	      5.50561      5.61694      7.32149        -0.074969     -0.173730      0.146084
O	      3.65835      8.94673      2.37958         0.045270      0.030436     -0.091456
O	      3.57987      8.89639      7.19756        -0.133775      0.049710     -0.011413
36
Config_type=disp-32 Weight=1.0 Lattice="11.358899116 -0.000000000 -0.000000000 -6.159508705 9.758020401 -0.000000000 -0.337865710 -0.299550414 9.292944908" Energy=-161.0137796500 Virial="29.22941 1.92318 -2.04883 1.92318 30.51975 -2.56514 -2.04883 -2.56514 -190.08785" pbc="T T T" Properties=species:S:1:pos:R:3:forces:R:3
Ca	     -0.47234      1.70426      9.26524        -0.072299      0.428742     -0.090870
Ca	     -0.34289      2.06550      4.63795         0.282343     -0.120224     -0.091864
Ca	     -2.45347      5.09124      9.13023        -0.043375     -0.156942      0.531578
Ca	     -2.25320      5.14589      4.62339         0.025231      0.323405      0.040013
Ca	     -4.60315      8.39230      9.24899         0.337752     -0.360629     -0.118464
Ca	     -4.40807      8.47755      4.63822         0.041267      0.067453     -0.051208
Ca	      3.67702      2.10675      0.08516        -0.052445      0.064229     -0.016662
Ca	      3.47759      2.06176      4.62931        -0.073543     -0.103602     -0.073839
Ca	      1.66591      5.45795      0.03348        -0.117978     -0.327197      0.015689
Ca	      1.55655      5.32129      4.55501        -0.071938     -0.006416     -0.122693
Ca	     -0.33749      8.64004      0.08280        -0.094119     -0.054465      0.078190
Ca	     -0.62779      8.50686      4.60630        -0.045085     -0.053567     -0.023204
Ca	      7.38490      2.16121      0.02658         0.272313     -0.072896      0.058406
Ca	      7.28754      2.00035      4.74932        -0.062679     -0.114453      0.098207
Ca	      5.01652      5.11671      9.24944         0.147214     -0.074293      0.106452
Ca	      5.25520      5.29400      4.62658         0.067162      0.011350      0.255264
Ca	      3.08967      8.31420      9.20887        -0.219339      0.024120     -0.107889
Ca	      3.14801      8.59282      4.61203         0.108227     -0.004353      0.204700
O	     -0.25472      2.12480      2.33220         0.055091     -0.014577     -0.278268
O	     -0.43403      1.95337      6.87891        -0.076291     -0.053326      0.278272
O	     -2.17493      5.36452      2.24289        -0.124488     -0.031500      0.357290
O	     -2.40741      5.26424      7.05657        -0.050052     -0.006396     -1.246689
O	     -4.34715      8.59101      2.37054         0.034200      0.135780     -0.452988
O	     -4.49897      8.43171      6.87459        -0.172374      0.066198      0.438179
O	      3.61721      2.12419      2.31792        -0.048450     -0.037115      0.076784
O	      3.36889      1.93410      6.93630         0.115903      0.033414      0.112250
O	      1.57826      5.36649      2.28362        -0.036918      0.012598     -0.181793
O	      1.34223      5.16135      6.86957        -0.016356      0.043030     -0.038780
O	     -0.47042      8.55472      2.32644        -0.073181      0.027241      0.096063
O	     -0.73415      8.37941      6.96868         0.038908      0.106338      0.064300
O	      7.33896      2.00763      2.36354        -0.030270      0.141658      0.133651
O	      7.26634      1.92958      7.01190        -0.157411      0.167795      0.247769
O	      5.20235      5.42026      2.41926         0.057192      0.018134     -0.220005
O	      5.05434      5.33731      7.00444        -0.011718     -0.041621      0.161930
O	      3.21836      8.63895      2.40862         0.040980      0.007081     -0.539671
O	      2.99251      8.53047      6.92088         0.026526     -0.044992      0.299900
32
Config_type=disp-57 Weight=1.0 Lattice="10.241786957 0.000000000 -0.000000000 0.318648577 10.226367950 0.000000000 0.249913931 0.231421217 5.464859009" Energy=-204.9396265100 Virial="1.94383 -7.34675 -9.57624 -7.34675 1.31849 -10.46774 -9.57624 -10.46774 -1.02986" pbc="T T T" Properties=species:S:1:pos:R:3:forces:R:3
Ca	      0.57246     10.43982      5.42881         0.164231     -0.215650      0.384420
Ca	     10.39087      2.61909      2.75258         0.814273      0.719724      0.013322
Ca	      2.63141      0.22341      2.73867         1.114844     -0.898367     -0.187781
Ca	      2.57933      2.43263      0.04051         0.774638      1.633387     -0.762976
Ca	      0.47955      5.27677      5.41043        -0.852388      1.043209      0.639602