304
Config_type=disp-10 Weight=1.0 Lattice="9.555999756 0.000000000 0.000000000 0.000000000 9.555999756 0.000000000 0.000000000 0.000000000 35.555999756" Energy=-1586.8916306300 Virial="-12.79700 -13.14856 5.19987 -13.14856 -19.29637 1.00161 5.19987 1.00161 -7.75675" pbc="T T T" Properties=species:S:1:pos:R:3:forces:R:3
Ca	      4.51040      4.63622     30.63964         0.246634      0.137714      1.039769
Ca	      8.65086      9.40258      2.18651        -0.572345      1.385349     -0.263910
Ca	      1.50769      7.04406      2.15989        -0.268346      0.430506     -0.333524
Ca	      2.30752      0.01046     28.55795         0.385918     -0.213404      1.328680
Ca	      8.59907      7.24626      4.87403        -0.685478     -0.261720      0.081695
Ca	      8.52760      0.15740      7.69313         0.930836      0.081461      0.011219
Ca	      2.28634      7.56401      8.39872        -0.445201      0.659295     -0.100249
Ca	      1.40812      0.06352      4.64667         0.238708     -0.516241     -0.142947
Ca	      1.47336      2.84580     31.24258         0.034309     -0.890851      0.941353
Ca	      8.54733      4.56474      2.06570         1.384129      0.223290      0.654171
Ca	      1.12161      2.18806      1.79603         0.132781      0.374108      0.389510
Ca	      3.02827      4.49229     34.08243        -0.895627      0.400617      0.756815
Ca	      8.43078      2.17006      4.78535         0.995394     -0.097692      0.219099
Ca	      5.50036      6.53497     14.94213         1.366346     -1.365635     -1.602340
Ca	      4.18626      7.75818     11.38481         0.621757      1.186712     -1.112229
Ca	      1.56380      4.78579      4.63815        -0.386750     -1.227992      0.703774
Ca	      6.33104      5.34710     34.11128         0.737515      0.477684      0.441423
Ca	      3.81468      9.51725      2.17504        -0.514556     -0.344478      0.717397
Ca	      6.06564      7.22935      2.10669         0.035751     -0.268043      0.147474
Ca	      3.26288      3.68452     27.43582        -0.764331     -0.471399      0.198574
Ca	      3.93367      7.14638      4.75883         0.054242     -0.671778      0.287836
Ca	      4.77245      1.06374      8.52053        -0.241820     -0.020531     -0.340561
Ca	      5.78370      7.21565      7.86351        -0.732343     -0.124115     -0.010102
Ca	      6.16379      9.27977      4.83586         0.094325      1.101746     -0.746584
Ca	      9.22499      2.71123     34.19337         0.055369      0.615581      1.391579
Ca	      3.66144      4.86169      1.86991        -0.174115      0.263355      1.339808
Ca	      6.25785      2.25209      2.24268         0.392984     -0.820894      0.180518
Ca	      1.24591      1.19245     25.27195        -1.120459     -0.475766     -0.589456
Ca	      3.94024      2.37843      4.76558         0.071771      0.160846      0.009907
Ca	      3.15033      9.38763     14.34776        -0.131364      0.256629     -0.733273
Ca	      0.76200      8.77914     11.54968        -0.184732     -0.931703     -0.281847
Ca	      6.21485      4.75419      4.92811        -0.791708     -0.117141     -0.413605
O	      1.45626      0.09822      2.31572        -0.203008     -1.054334      0.382816
O	      1.78460      2.65085     35.23768         0.337046      0.385995     -0.821125
O	      7.22036      2.12733     27.72824         0.825304     -1.229277     -0.214062
O	      8.46439      7.08960      2.05866         0.418323     -0.130538      0.780754
O	      1.32573      2.19102     10.79695        -0.682366      3.301804     -0.178331
O	      1.37895      7.14811      4.67733         0.365341      0.093441      0.116582
O	      8.64542      9.36961      4.41305        -0.278838      0.076263      0.952890
O	      7.93813      7.47788      7.24312         1.104823     -1.080173     -0.212229
O	      1.26108      4.64454      2.45782         0.567687      0.452456     -0.561665
O	      2.49722      6.25037     35.49971         2.206432      0.554512      0.598302
O	      6.94020      6.05021      9.58604         1.255337     -0.367990     -0.927772
O	      8.52982      2.30161      2.61309         0.178862      0.292250     -1.092851
O	      4.53659      5.38041      6.65266        -1.113849      1.764548      1.820271
O	      1.37424      2.23873      5.06422         0.631593      0.973119      0.829726
O	      8.70872      4.59644      4.80461        -0.620201      0.964676      2.446221
O	      1.10344      9.15429      7.04790         0.625667     -0.419420      0.101145
O	      6.17075      9.38523      2.52796        -0.000715      0.554494     -0.379513
O	      0.33058      8.58749     29.83009        -0.330966     -0.047702     -2.114704
O	      6.00437      9.15355     33.16510         0.713164      0.431405     -2.181554
O	      3.60176      7.22521      2.62893         1.031218     -0.641684     -0.972322
O	      6.57138      0.77758      6.99983        -0.577575     -1.616646      0.525821
O	      6.32416      7.09521      4.63433        -0.391144     -0.773922     -0.303605
O	      3.74647      0.12884      4.54846         0.443801     -0.667206      0.471717
O	      4.20601      8.40382      7.00280        -0.865548      0.316169     -0.008369
O	      6.35725      4.65074      2.14772        -0.820119      0.667494      1.707319
O	      4.66828      9.29464     28.26740        -0.526879      0.248648     -0.191736
O	      5.81864      7.16364     35.32991         0.947010      1.816445     -0.072516
O	      3.73618      2.36083      2.19408        -0.060330     -0.468032      2.178812
O	      1.54817      5.02987     15.20779        -0.405560      1.464545     -1.128995
O	      6.30562      2.48623      4.53452        -1.151835     -0.260253     -0.004521
O	      3.71490      4.61934      4.30104         0.771851      0.424980     -0.824572
O	      0.84201      0.29849     17.69427        -0.269503     -0.363815      0.814650
O	      4.74393      2.23072     28.36262         0.854249     -0.561028     -0.394125
O	      7.88573      4.80366     14.78354        -0.954038      0.096429      0.504990
O	      8.78566      0.98427     35.55283        -0.019648     -1.827022     -0.504630
O	      2.38626      8.78876     25.98696         0.488374     -0.331939      0.596615
O	      6.66351      2.17508      9.70984         0.653604      0.368287      2.629988
O	      7.96107      3.42493     12.67591         0.386773     -0.519641     -0.590408
O	      8.66638      0.71383     25.77844         0.132117      0.873634     -0.348818
O	      0.26435      4.01242      9.27816         2.277054      3.045396      0.994879
O	      4.66228      3.01724      6.95422        -1.081077     -0.260745      0.944209
O	      7.27635      7.98781     15.36222         0.474853     -0.214533     -0.835775
O	      0.79223      4.38228     32.89300         2.541885     -2.898469      0.167687
O	      0.08666      1.13904     32.57492         0.619387      0.096235     -0.339922
O	      8.47524      3.24207     20.60741        -5.048794      0.156330      0.973291
O	      4.88741      3.87904     13.11088        -3.401937      0.053420      0.116572
O	      5.75079      1.56207     35.38494        -0.144866      0.322604     -0.609135
O	      8.71129      0.15580     10.01140        -0.257780      0.288178      0.977750
O	      3.92961      2.17790     10.54111         3.405498     -0.931518     -1.418324
O	      6.43564      3.84710     22.14873        -0.623713      0.729976     -0.936067
O	      7.19018      0.88851     30.47163        -0.625070     -0.774134      0.735961
O	      2.54413      1.98629      7.72850        -0.208365      0.521262      0.219871
O	      4.76281      4.21816     25.49763         0.706016      0.881032     -1.711755
O	      3.92181      9.19643     35.44976        -0.215876      1.503732      0.617593
O	      3.94287      2.57496     21.28904         1.294058      0.549037      0.583032
O	      1.25192      1.58674     20.34599         0.255882      0.157168      1.748162
O	      5.55062      8.76946      9.74401        -0.138682      0.045627     -0.778406
O	      3.87051      7.60741     15.72373         0.866108      2.277657      1.526381
O	      0.39797      0.38458     22.79785        -1.416646     -1.982358     -1.806976
O	      8.84804      2.41778      7.11957        -2.601209     -0.829056     -0.683239
O	      7.80971      3.90998     24.33572        -0.930348     -0.547886     -1.527315
O	      7.88908      0.54708     16.66381         2.628472     -1.509222      2.484814
O	      3.90913      6.29604      9.47235         0.372256      0.453290      0.481738
O	      9.43635      6.76165     23.35934         0.752939     -2.200775      0.356186
O	      0.86447      3.25523     24.56853        -0.495796      0.788901      0.660876
O	      4.28651      5.41526     28.22232         0.527736      0.231259      0.918594
O	      2.40597      7.35918     12.81448        -0.194538      0.475445      0.276696
O	      0.08506      8.18867     32.69688         0.318708      2.085384     -1.203184
O	      0.30641      7.31832     35.30146        -0.685339      0.305859     -0.826509
O	      7.56774      7.12815     25.30091         1.514882      0.438645      0.154278
O	      4.18371      8.71201     21.70451        -0.490402     -0.010753      0.219894
O	      5.15313      4.09231     35.50066        -1.878757      2.144004      0.065651
O	      8.38021      4.75047     35.42752        -0.052892     -0.906831     -1.243414
O	      5.58881      6.59575     12.64490         0.429929      0.919753      1.412226
O	      7.93257      4.65629     26.87840        -0.818059      0.063721     -0.864346
O	      8.93020      3.28802     30.25875        -0.093994      0.715758      1.517995
O	      6.16986      5.22300     17.08432        -0.503841     -0.074306     -1.962844
O	      1.46071      1.86713     27.48728        -2.393224      0.405111     -0.341468
O	      4.80225      9.50103     25.40021         2.966636      1.320181     -0.836104
O	      4.41558      5.84090     32.84352         0.134603      0.470439     -1.416303
O	      2.64240      9.13544     10.12032        -0.683698      0.681973     -0.058024
O	      2.20600      6.83965     28.21696        -3.728106      2.002307     -1.846020
O	      0.95998      5.15928     26.49207         0.693700     -0.294620     -1.297393
O	      0.57494      7.52825     15.77450         2.165496      0.245989      0.981856
O	      1.79095      6.33827     18.67155        -0.092838     -2.335525     -1.088566
O	      1.94821      5.65128      7.01290         0.549717      0.980435     -0.709096
O	      7.79180      0.68050     12.63144         1.051211      0.425356     -0.626212
O	      2.36969      4.06345     29.52408         0.005099      0.443280      0.376632
O	      0.42466      6.93624     10.23759        -0.613631     -0.606380     -0.624340
O	      2.94224      8.74581     32.67213         2.004753      0.810437      0.632629
O	      5.88471      1.97962     17.97258        -1.040563     -2.210311      1.630497
O	      7.05136      7.19242     21.93078        -0.190210      0.176516     -0.514004
O	      4.52742      1.44727     15.68961         1.586483     -1.425491     -1.964489
O	      7.87517      6.55262     32.91533        -0.637636      0.412923     -2.527026
O	      7.45843      7.05123     19.08423         0.357002     -2.111628     -0.255525
O	      0.44566      5.01531     11.94733         0.679820     -1.738473      2.079631
O	      7.08486      4.37214      7.23060        -0.334178     -1.795833      0.700798
O	      6.82101      5.23867     31.00239         0.708497      2.134652     -2.657605
O	      4.72737      6.51347     23.58894        -0.110279      0.472466      2.310106
O	      2.78809      8.85096     19.41867        -0.751082     -0.018584     -3.475551
O	      8.57900      7.22747     12.77826         3.451748     -0.789417      0.754656
O	      5.03281      9.25659     13.03889        -0.991786      0.633217      0.311841
O	      7.04695      2.86414     33.25065        -1.240530     -1.309638      1.549435
O	      6.31857      1.26617     20.95606         0.765129      0.307744      0.470651
O	      1.24470      0.51951     13.29035        -0.063693      0.522334      0.856325
O	      9.31109      5.10788     17.76958         0.330938      1.209941      1.253509
O	      6.40687      1.22356     23.72498        -1.154719     -0.069277      0.568678
O	      2.71870      0.83358     30.74100        -1.229003      0.141413     -1.713299
O	      3.24838      1.69805     23.75541        -1.289892     -0.081722     -1.047571
O	      2.02874      1.50550     16.01221        -1.486853      2.620403      0.543773
O	      3.72365      3.08419     32.55620         0.809710     -1.591531     -0.648340
O	      5.78411      8.72572     18.98775        -3.276132      2.531908      0.490409
H	      4.04396      8.74047     34.61141         0.194936     -0.148143     -0.189491
H	      4.82417      6.00838     27.69022         0.457308      0.252835     -0.167824
H	      2.52456      9.15020     31.87267         0.372363      0.495822     -0.117512
H	      7.57072      1.22392     16.13076        -1.049827      2.380009     -2.070523
H	      3.54382      1.30514     30.87880         0.692245      0.171789      0.183133
H	      8.58598      5.70888     18.12548         0.969837     -0.696922     -0.623638
H	      6.09157      5.72841      9.90128        -0.945549     -0.330118      0.291062
H	      8.47262      7.35210     32.57547        -0.557842     -1.307359      0.920009
H	      7.67248      7.04265     12.69251        -3.365278     -0.300570     -0.623662
H	      3.85658      2.00330     16.04889        -1.762580      0.793993      0.970035
H	      0.42220      2.08953     27.49498         3.160552     -0.575678      0.120401
H	      7.93687      0.19963     26.10990        -0.398451     -0.829776      0.449418
H	      8.67302      1.21559     32.47853         0.234648     -0.622575     -0.467294
H	      4.49741      3.39342     21.51958        -0.897176     -0.750760     -0.233914
H	      9.55319      7.89956     29.20582         0.303092      0.340136      0.359717
H	      4.73924      1.96043     21.22035        -0.336722     -0.003699     -0.418771
H	      8.56938      3.60007     19.76190         0.534972      1.300070     -3.050240
H	      7.09338      5.99982     30.30955        -0.881398     -2.474970      1.711734
H	      7.30460      3.07052     27.60694         0.204187      1.922676     -0.108940
H	      9.30484      0.92844     10.07203         0.025987      0.507821     -0.257635
H	      1.79547      0.27540      7.26079        -0.466724      0.272698      0.059356
H	      6.78490      8.47534     33.20813        -1.509310      1.180219     -0.727529
H	      1.61113      7.58169     15.87199        -1.982845     -0.089471     -0.675670
H	      8.25297      3.89797     30.70544         0.195889     -0.241323     -0.737584
H	      0.63063      5.65787     18.06014        -2.015005     -1.164913     -0.449827
H	      1.43784      1.05990     17.07499         0.334288     -0.887558     -1.224813
H	      3.59501      2.82106      7.33390         1.221033     -0.444820     -0.354719
H	      6.24837      0.34220     20.61595         0.145271      0.297191     -0.631820
H	      6.53552      2.98609     10.31394         0.311746     -1.418954     -1.043347
H	      7.80958      4.28089     25.91135        -0.024470      0.724645      1.023514
H	      7.15104      1.22155     24.31797         1.896492      0.192321      1.144616
H	      1.89619      1.81267     34.74473         0.409427     -0.081212      0.349216
H	      5.04771      1.60538     18.48281         2.174642      1.034368     -1.262753
H	      7.10381      7.97630     25.27610        -0.451560      0.346526      0.041882
H	      1.00820      5.88352     15.39133         0.546047     -1.440085     -0.211540
H	      8.98178      6.28318     12.67415        -0.582201      1.453754      0.405527
H	      8.95390      0.10949     35.06724         0.006491      1.473070      0.705487
H	      2.42801      7.90172     26.48757         0.365686      1.244233     -0.751944
H	      7.91759      7.16822     22.42769        -0.143638      0.136915     -0.228469
H	      3.76377      9.37551     32.77590        -2.040057     -1.695533     -0.164351
H	      3.91543      9.03125      6.29112        -0.108847      0.286406     -0.272354
H	      7.16091      1.73870     20.67253        -0.819376     -0.823617     -0.234998
H	      7.86337      7.94779     14.57256        -0.469578     -0.854561     -0.947692
H	      7.78431      3.56776      7.37013         0.355734      0.360459     -0.442249
H	      2.84025      6.52173     13.04815        -0.198179     -0.015695      0.244512
H	      1.58480      7.15221      5.64575        -0.455004     -0.178170     -0.147575
H	      1.05063      4.54012     25.63174        -0.555851      0.353326      0.995755
H	      1.69279      4.67706     16.07449         0.040196     -0.578958      1.173077
H	      7.92829      7.88964     19.14843         0.674135      0.347540      0.370141
H	      2.43065      0.51635      9.85617         0.277423     -0.992985      0.190016
H	      8.68107      3.13739     29.35444        -0.559670      0.097755     -0.998030
H	      4.54562      8.29510     16.12719        -1.841174     -1.330379     -0.355369
H	      8.77834      3.74301     12.16210        -0.945078     -0.224883      1.099037
H	      8.82727      7.18389      1.14441        -0.222215     -0.492629     -0.456230
H	      6.77445      1.36277     22.84609        -0.202056     -0.313157     -1.103113
H	      5.61144      0.37386     24.78801        -2.661478     -1.036414      0.521021
H	      3.46192      8.05509     21.80109         0.413451     -0.169086     -0.101938
H	      0.35472      9.31150     32.69735        -1.176497     -0.282333     -0.036816
H	      5.15474      6.35977     22.77020         0.632757     -0.597847     -2.326590
H	      1.52374      2.19264      6.06928        -0.115615      0.071243     -1.122783
H	      5.24489      3.16526     35.34590         0.482444     -2.112613     -0.161544
H	      1.13924      5.15127     12.64045        -0.498719     -0.032646     -0.345784
H	      3.97045      1.71982     24.37217         1.347960      0.017666      0.400138
H	      1.26586      6.92776     35.24264         0.201402     -0.078995     -0.052475
H	      8.73751      3.64773     24.19154         1.363612     -0.308370      0.441564
H	      4.51601      6.82566     32.74072        -0.454055     -0.856546      0.300325
H	      3.47820      5.43709      9.38807         0.087901     -0.459195     -0.017965
H	      7.93357      0.62316     11.60546        -0.303785     -0.392939      1.151620
H	      5.93926      0.12606     32.25460         0.869836     -1.808162      2.441018
H	      7.11448      5.56651      8.71290         0.008898     -0.558287      0.976503
H	      4.68191      5.04663     24.87726         0.096416     -1.259427      0.883752
H	      5.67786      9.03242     13.71568         0.614273     -0.162875      0.118841
H	      9.04443      5.99301     23.93381         0.622821      1.338591     -1.222159
H	      7.37143      6.10163     31.99432         0.912975      0.187971      1.598991
H	      0.73331      6.34629     22.98073        -1.442025      0.725165      0.624325
H	      8.84943      0.81659     16.94344        -1.098977     -0.663849      0.013825
H	      7.76105      4.03262     14.14701         0.563301      0.627957     -0.188161
H	      5.71889      2.16954     28.02353        -0.989329      0.508476      0.381707
H	      4.77679      8.56640     19.06596         1.423830      0.271401     -0.027585
H	      0.01829      2.82664      7.51802         2.228956      1.179465      1.060724
H	      7.21957      6.70464     19.98427         0.581925      0.645492      0.070254
H	      6.51241      1.16156     18.03917        -0.963766      1.408703     -0.229771
H	      0.32587      7.68657     14.84643         0.473662      0.123305     -0.517532
H	      0.37053      4.90169      9.83691        -0.021251     -1.487730     -1.635090
H	      3.01004      6.37861     28.39430         2.794427     -1.556987      0.348428
H	      3.33260      9.14330     25.73670        -0.580548     -1.251962      0.225367
H	      2.58866      9.21762     20.26221        -0.274704      0.844667      1.376705
H	      6.43284      1.47947      6.37081        -0.387791      1.632773     -0.720273
H	      6.34268      4.83120     22.00264         0.446758     -0.811729      0.278172
H	      0.87103      7.68316     32.87769         1.285963     -0.408640      0.199310
H	      6.86552      0.86112     12.85290        -0.896025     -0.549586     -0.587183
H	      5.08555      8.94198     29.06967         0.060521     -0.025549     -0.017043
H	      0.22810      5.09097     32.75449        -2.126223      2.700091     -0.559622
H	      4.53301      2.65666     11.10295         0.371124      0.392770      0.758458
H	      7.28331      9.46665     30.51089         0.286834      0.615436     -0.149586
H	      3.85084      3.76794     13.30816         3.107161      0.136640     -0.331894
H	      4.72213      1.13413     28.44901        -0.422001      0.021006      0.032286
H	      7.13138      1.48670     10.34219        -0.718480      1.361785     -1.737554
H	      0.42666      5.83316     11.41281         0.403061      1.734195     -1.934297
H	      0.75447      0.85688     14.08229         0.386878     -0.086217     -0.920067
H	      7.87384      8.61324     15.81924        -0.682973      0.728662      1.318555
H	      4.49960      0.51368     35.44444         0.106928     -0.785289     -0.838466
H	      6.47653      9.03627      9.77798         0.594311     -0.132637      0.555460
H	      5.18306      0.08226     26.30169        -0.499703     -0.434751      0.563217
H	      3.58892      5.57101      7.13182         1.453949     -0.619377     -1.591009
H	      1.41471      5.34586      7.73732        -0.916800     -0.921498      0.815509
H	      6.85229      8.10479     21.58684         0.222207     -0.706850      0.660623
H	      9.51025      7.34945     34.36545         0.107792      0.203153      1.332649
H	      3.90030      9.35691     22.37492         0.210316      0.346236      0.434345
H	      8.52655      7.45256     25.22880        -1.310335     -0.508798      0.088870
H	      0.27192      8.15667     30.68697         0.068713     -0.112585      1.684253
H	      2.62865      6.25412     18.20829         0.539314      0.220690     -0.317359
H	      8.05185      2.45232     12.89602         0.263472      0.163024     -0.838060
H	      0.32597      0.70992     21.84063         0.570656     -0.017893      1.202772
H	      9.53105      5.26093     26.60561         0.217425     -0.527001      0.275037
H	      2.14342      9.35049     18.70224         0.732267     -1.127861      1.415738
H	      1.44855      2.35094     15.93660         1.304499     -1.672414     -0.419957
H	      1.32775      1.79954     19.42917        -0.401102      0.019004     -1.866085
H	      6.51154      2.22098     34.01477         0.489179      1.011766     -0.440894
H	      4.58323      4.23825      6.89880        -0.002502     -0.233523     -0.393030
H	      5.59614      3.78856     25.14193        -0.885334      0.390608      0.491004
H	      5.55933      5.73374     12.26376         0.218901     -1.724813     -0.358935
H	      6.27473      7.92297     18.84153         0.126769     -1.400121     -0.321054
H	      7.08265      2.26678     32.48983        -0.271349     -0.017031     -0.620117
H	      0.73158      9.06400     17.10218         0.172752      0.477114      0.232553
H	      7.37871      3.55448     23.44763         0.014654      1.268409      1.711137
H	      7.03858      3.53740     21.40664        -0.023329      0.535107      0.452402
H	      7.31799      5.43560     26.92996         0.482073     -0.659097     -0.270225
H	      6.33250      5.93744     17.67431         0.551942      1.301942      1.320653
H	      8.47241      6.65480      7.43563        -0.520981      1.125567      0.073440
H	      8.91441      3.84076      9.42613        -2.341183     -0.764290      0.027199
H	      5.28491      1.40528     16.28527         0.199645      0.376187      0.678241
H	      6.10890      8.14048     35.16118        -0.886681     -2.391760      0.394158
H	      3.54169      2.04804     22.84441        -0.133573      0.009724      0.698107
H	      1.84851      7.08081     19.22985         0.443308      2.520511      1.370366
H	      5.34940      3.50350     13.87068         0.047611     -0.541908      0.309605
H	      4.16935      2.33538     33.08439        -0.795299      1.337079     -1.148380
H	      6.28309      4.54759      1.18890        -0.604188     -0.036332     -0.986652
H	      9.04136      5.16098     34.83283        -0.180054      0.327313      0.555312
H	      5.44538      7.10727     23.92701        -0.696544     -0.115114      0.419437
H	      3.05195      2.37156     10.74097        -3.389012      0.739156      0.636228
H	      7.75642      1.79780     26.94091         0.025648     -0.525258      0.034943
H	      9.27968      2.97165     20.90239         4.595642     -1.615738      1.507086
H	      6.27816      3.72170      7.27557         0.184849      0.973383      0.116810
H	      1.39668      1.83256     11.67134         0.072254     -1.071671      2.171698
H	      2.14754      1.83239     20.65953         0.096026      0.202171      0.424035
H	      3.31994      6.86265     35.51590        -1.454115     -0.865475     -0.170246
H	      1.75866      4.82191     29.37586         0.370750     -0.333838      0.148431
H	      1.77421      6.31996     27.44106         0.299971      0.246886      1.059623
H	      9.50617      9.00971     22.67077         1.082635      1.912578      0.804117
H	      3.77949      2.68894      1.32157         0.158340      0.059173     -2.523996
H	      1.91865      2.61749      8.15407         0.351017     -0.560121      0.056379
H	      1.72415      3.35186     24.16109         0.729230      0.216330     -0.860110
H	      1.09025      3.20704     11.01636         0.260324     -2.505408     -1.144542
H	      8.58342      4.57845      5.84717         0.350601     -0.095714     -2.537894
H	      7.69334      1.19352     29.70408         0.102681      0.010062     -0.275626
H	      6.40323      0.84399     35.45073         0.396530      0.028750     -0.006062
H	      6.00250      4.44824     17.60452        -0.259668     -1.291869      0.689421
H	      7.84345      4.49137     15.70667         0.262441      0.109506     -0.104448
H	      9.01842      7.04994      9.99737         0.956037     -0.164147      0.116099
304
Config_type=disp-7 Weight=1.0 Lattice="9.555999756 0.000000000 0.000000000 0.000000000 9.555999756 0.000000000 0.000000000 0.000000000 35.555999756" Energy=-1578.4795428200 Virial="27.65279 -4.70453 -5.27262 -4.70453 19.29898 3.32372 -5.27262 3.32372 25.12313" pbc="T T T" Properties=species:S:1:pos:R:3:forces:R:3
Ca	      3.92821      7.78362     31.27442         0.994802      0.122488     -0.185654
Ca	      7.79958      0.38819      1.94197         0.475253     -1.408301      0.655941
Ca	      0.71283      7.67668      1.94972        -0.610336     -1.675336      0.921016
Ca	      0.61005      0.20684     34.89829        -0.489573      0.697773      0.966568
Ca	      8.19301      7.52250      4.57174        -0.562742      0.386632     -0.575613
Ca	      8.15770      0.15264      7.60121         0.766792      0.758833     -0.265177
Ca	      2.02126      1.63453      8.01470        -0.163711      0.160459      0.123236
Ca	      0.84323      0.43799      4.47705        -1.139551     -0.282244     -0.691735
Ca	      6.99262      2.93221     33.93509        -0.289365      0.589940      0.891971
Ca	      7.82812      4.99621      1.97043        -0.343948      0.337002      0.643129
Ca	      0.61106      2.71103      2.01749         0.379025     -0.829615      0.999115
Ca	      0.79108      5.07807     35.26500         0.097422     -1.256782      1.607207
Ca	      7.91757      2.62070      4.38295        -0.286238      0.267407      1.360873
Ca	      2.15679      1.71963     13.73778         0.417269      0.394878     -1.026200
Ca	      3.04721      4.49969     11.57404        -0.335336      0.349978     -0.483008
Ca	      0.68731      5.11134      4.52631         0.651836     -0.269292      0.110634
Ca	      3.20094      7.39876     35.12866         1.066459     -0.580072      0.228502
Ca	      3.29987      0.08983      2.01811        -0.343186      1.049677      0.480504
Ca	      5.67083      7.33476      1.88273        -0.120613      0.353919      0.882094
Ca	      6.07971      9.18781     33.53067         0.606565     -0.743804      0.715417
Ca	      3.07128      7.44976      4.50894        -0.191657      0.023148     -0.001568
Ca	      5.47765      2.39899      7.40755        -0.723864      0.386202      0.005544
Ca	      4.62194      8.55308      7.77088         0.798692     -0.392123      0.239790
Ca	      5.82089      0.18595      4.70700        -0.263799      0.454255     -1.138892
Ca	      3.31838      2.56544     35.24376        -0.060718      0.164052      0.044428
Ca	      3.13834      5.01837      2.35912        -0.597509     -0.017847     -1.445521
Ca	      5.51591      2.54456      2.06728         0.230953      0.487938      0.558088
Ca	      8.93011      1.17304     31.45663        -0.238490      0.761692      0.440354
Ca	      3.17471      2.59558      4.49732         0.463741     -0.023768      0.527493
Ca	      4.38580      1.54526     10.79079         0.574382      0.318220     -0.237891
Ca	      3.07732      8.07311     13.66056         0.054723      0.337010     -0.416139
Ca	      5.34638      5.03145      4.66361         0.466087     -0.910666     -0.094995